<VTKFile type="UnstructuredGrid" version="1.0" byte_order="LittleEndian" header_type="UInt64">
  <UnstructuredGrid>
    <Piece NumberOfPoints="12" NumberOfCells="20">
      <PointData Scalars="Resultz" Vectors="MyVector">
        <DataArray type="Float32" Name="Resultz" format="ascii" RangeMin="-1" RangeMax="1.24721360206604">
          0.5236067771911621 0.970820426940918 0.970820426940918 0.5236067771911621 1.24721360206604 -0.37082037329673767
          0.3527863919734955 -0.37082037329673767 0.0763932466506958 0.0763932466506958 1 -1
        </DataArray>
        <DataArray type="Float64" Name="MyVector" NumberOfComponents="3" format="ascii" RangeMin="0.9999999804828497" RangeMax="1.0000000038856474">
          0.27639320492744446 0.8506507873535156 0.4472135901451111 -0.7236068248748779 0.525731086730957 0.4472135901451111
          -0.7236068248748779 -0.525731086730957 0.4472135901451111 0.27639320492744446 -0.8506507873535156 0.4472135901451111
          0.8944271802902222 -2.1907150604527891e-16 0.4472135901451111 -0.27639320492744446 0.8506507873535156 -0.4472135901451111
          -0.8944271802902222 1.0953570008308025e-16 -0.4472135901451111 -0.27639320492744446 -0.8506507873535156 -0.4472135901451111
          0.7236068248748779 -0.525731086730957 -0.4472135901451111 0.7236068248748779 0.525731086730957 -0.4472135901451111
          0 0 1 1.2246469849340659e-16 0 -1
          <InformationKey name="L2_NORM_RANGE" location="vtkDataArray" length="2">
            <Value index="0">
              0.99999998048
            </Value>
            <Value index="1">
              1.0000000039
            </Value>
          </InformationKey>
          <InformationKey name="L2_NORM_FINITE_RANGE" location="vtkDataArray" length="2">
            <Value index="0">
              0.99999998048
            </Value>
            <Value index="1">
              1.0000000039
            </Value>
          </InformationKey>
        </DataArray>
        <DataArray type="Float64" Name="MyTensor" NumberOfComponents="9" format="ascii" RangeMin="1.2110601385413307" RangeMax="1.211060146309252">
          0.7815737874609694 -0.10514622217782077 -0.05527864415733432 -0.10514622217782081 0.4921310627633197 -0.17013016532953515
          -0.0552786441573342 -0.1701301653295352 0.726295149775711 0.5815737879336998 0.17013016095272765 0.14472134843873524
          0.17013016095272765 0.6921310640523778 -0.10514622146777175 0.14472134843873524 -0.10514622146777179 0.7262951480139225
          0.5815737879336998 -0.17013016095272762 0.14472134843873524 -0.17013016095272762 0.6921310640523778 0.10514622146777175
          0.14472134843873521 0.10514622146777178 0.7262951480139225 0.7815737874609694 0.10514622217782085 -0.05527864415733417
          0.10514622217782085 0.4921310627633197 0.1701301653295352 -0.05527864415733417 0.1701301653295352 0.7262951497757109
          0.45796698580811857 7.771561172376095e-17 -0.17888545208352405 4.4408920985006264e-17 0.8157378639923423 5.551115123125783e-17
          -0.17888545208352397 0 0.7262951501995392 0.7815737874609694 0.10514622217782088 -0.05527864415733423
          0.10514622217782088 0.49213106276331986 0.17013016532953523 -0.055278644157334175 0.17013016532953523 0.726295149775711
          0.45796698580811857 5.551115123125783e-17 -0.17888545208352397 2.2204460492503132e-17 0.8157378639923424 2.2204460492503132e-17
          -0.17888545208352397 8.326672684688674e-18 0.7262951501995392 0.7815737874609694 -0.10514622217782084 -0.05527864415733421
          -0.10514622217782084 0.4921310627633198 -0.17013016532953518 -0.05527864415733419 -0.17013016532953523 0.726295149775711
          0.5815737879336998 0.17013016095272765 0.14472134843873521 0.17013016095272762 0.6921310640523777 -0.10514622146777178
          0.14472134843873524 -0.10514622146777179 0.7262951480139225 0.5815737879336997 -0.17013016095272762 0.14472134843873516
          -0.17013016095272757 0.6921310640523777 0.10514622146777183 0.14472134843873524 0.10514622146777179 0.7262951480139226
          0.8157378649827638 3.3306690738754695e-17 -1.8048941508030936e-9 1.1102230246251566e-17 0.8157378572042615 2.2204460492503132e-17
          -1.804894123047518e-9 1.1102230246251566e-17 0.3685242778129746 0.8157378649827638 2.2204460492503132e-17 -1.8048941452519784e-9
          1.1102230246251566e-17 0.815737857204262 4.4408920985006264e-17 -1.8048941008430575e-9 2.2204460492503132e-17 0.3685242778129746
          <InformationKey name="L2_NORM_RANGE" location="vtkDataArray" length="2">
            <Value index="0">
              1.2110601385
            </Value>
            <Value index="1">
              1.2110601463
            </Value>
          </InformationKey>
          <InformationKey name="L2_NORM_FINITE_RANGE" location="vtkDataArray" length="2">
            <Value index="0">
              1.2110601385
            </Value>
            <Value index="1">
              1.2110601463
            </Value>
          </InformationKey>
        </DataArray>
      </PointData>
      <CellData>
      </CellData>
      <Points>
        <DataArray type="Float32" Name="Points" NumberOfComponents="3" format="ascii" RangeMin="0.9999999804828497" RangeMax="1.0000000038856474">
          0.27639320492744446 0.8506507873535156 0.4472135901451111 -0.7236068248748779 0.525731086730957 0.4472135901451111
          -0.7236068248748779 -0.525731086730957 0.4472135901451111 0.27639320492744446 -0.8506507873535156 0.4472135901451111
          0.8944271802902222 -2.1907150604527891e-16 0.4472135901451111 -0.27639320492744446 0.8506507873535156 -0.4472135901451111
          -0.8944271802902222 1.0953570008308025e-16 -0.4472135901451111 -0.27639320492744446 -0.8506507873535156 -0.4472135901451111
          0.7236068248748779 -0.525731086730957 -0.4472135901451111 0.7236068248748779 0.525731086730957 -0.4472135901451111
          0 0 1 1.2246469849340659e-16 0 -1
          <InformationKey name="L2_NORM_RANGE" location="vtkDataArray" length="2">
            <Value index="0">
              0.99999998048
            </Value>
            <Value index="1">
              1.0000000039
            </Value>
          </InformationKey>
          <InformationKey name="L2_NORM_FINITE_RANGE" location="vtkDataArray" length="2">
            <Value index="0">
              0.99999998048
            </Value>
            <Value index="1">
              1.0000000039
            </Value>
          </InformationKey>
        </DataArray>
      </Points>
      <Cells>
        <DataArray type="Int64" Name="connectivity" format="ascii" RangeMin="0" RangeMax="11">
          0 1 10 1 2 10
          2 3 10 3 4 10
          4 0 10 1 0 5
          2 1 6 3 2 7
          4 3 8 0 4 9
          5 6 1 6 7 2
          7 8 3 8 9 4
          9 5 0 6 5 11
          7 6 11 8 7 11
          9 8 11 5 9 11
        </DataArray>
        <DataArray type="Int64" Name="offsets" format="ascii" RangeMin="3" RangeMax="60">
          3 6 9 12 15 18
          21 24 27 30 33 36
          39 42 45 48 51 54
          57 60
        </DataArray>
        <DataArray type="UInt8" Name="types" format="ascii" RangeMin="5" RangeMax="5">
          5 5 5 5 5 5
          5 5 5 5 5 5
          5 5 5 5 5 5
          5 5
        </DataArray>
      </Cells>
    </Piece>
  </UnstructuredGrid>
</VTKFile>
